5
	Energy:       0.1819028
C         -2.33818       -0.31532        1.74968
N         -1.75960       -1.19552        2.47973
H         -2.43981       -0.47070        0.67990
H         -2.72872        0.58984        2.20140
H         -1.38557       -2.05845        2.05912
