5
	Energy:       0.1163774
C          0.39478       -0.97744        0.55302
O          0.49977       -0.43549        1.64052
O          0.86601       -0.36620       -0.55063
H         -0.07856       -1.95147        0.47840
H          0.78642       -0.78964       -1.41646
