8
	Energy:       1.2201999
C          0.37881       -0.94937        0.75070
O          0.46398       -0.44177        1.85624
O          0.86694       -0.29650       -0.32778
H         -0.08989       -1.92401        0.64350
C          0.79258       -0.83129       -1.59402
H          1.25307       -0.12523       -2.31521
H         -0.26895       -0.99370       -1.87999
H          1.34305       -1.79577       -1.63592
