7
	Energy:       0.1897955
C          0.42471       -0.95945        0.61265
C          0.48318       -0.35901        1.97853
O          0.83546       -0.33247       -0.35027
H         -0.11226        0.57764        2.00245
H          1.53701       -0.13210        2.24385
H          0.06771       -1.07190        2.72110
H          0.01665       -1.95520        0.47287
