10
	Energy:       1.3434140
C          0.48891       -0.79579        0.65518
C          0.53255       -0.22298        2.04112
O          0.91075       -0.13366       -0.28014
H         -0.06263        0.71354        2.07416
H          1.58392        0.00497        2.31516
H          0.11835       -0.93118        2.78880
C         -0.06315       -2.16662        0.39652
H         -0.40877       -2.65104        1.33355
H          0.72334       -2.80287       -0.06069
H         -0.92321       -2.09429       -0.30169
