9
	Energy:       1.8033031
C         -0.46630       -0.35121        0.62502
N         -0.91401       -1.48353        1.03712
N         -0.89768        0.18069       -0.61847
N          0.46234        0.36737        1.41802
H          0.77996       -0.01261        2.32179
H          0.82748        1.27562        1.09731
H         -1.59002       -2.02625        0.47969
H         -0.53797        1.08819       -0.94728
H         -1.57270       -0.33271       -1.20391
