14
	Energy:      11.6940935
C          9.71797        1.22427        3.15960
C          9.54384        0.77082        4.47127
C          8.25694        0.48340        4.95237
C          7.14798        0.65405        4.10900
C          8.61011        1.39256        2.32364
C          7.32621        1.10769        2.79794
H         10.71149        1.44513        2.79131
H          8.74644        1.74352        1.30890
H         10.40753        0.64334        5.11181
H          6.46924        1.23835        2.14986
H          6.15000        0.43582        4.46804
N          8.07849        0.02404        6.28060
H          7.13590       -0.18847        6.63899
H          8.88916       -0.10302        6.90410
